! Touchstone file from project XFM1to1_v2;OD;90.0;WI;4.0;WO;4.0;S;3.0;ROP;5.0;LOP;21.0;ex;5.0;LEA;15.0;LEA;20.0
! Exported from HFSS 13.0.0
# GHZ S RI R 50.000000
! Modal data exported
! Port[1] = port1:1
! Port[2] = port2:1
! Port[3] = port3:1
! Port[4] = port4:1
1                -0.0200569025550479 0.00622280777595924 0.963235937933438 -0.0195650995631054 0.0167908884971904 0.0103574476045617 0.0137097020204153 -0.00250697172800152 
                0.963236259660382 -0.0195647633227551 -0.0200594281108435 0.00622726405027416 0.013712517028779 -0.0025068558422966 0.0167970364747584 0.010361067490892 
                0.0167789038830923 0.0103637412547044 0.0137012054362549 -0.00250054611893313 -0.0196080706404924 0.00478398393175228 0.968159368136465 -0.0167611506873993 
                0.0136980970071248 -0.0025003458309687 0.0167861153683484 0.0103676975591682 0.968158901469973 -0.0167619282188722 -0.0196133834956012 0.00478450336629699 
! Gamma  !      0                0                0                0                0                0                0                0                
! Port Impedance  50               0                50               0                50               0                50               0                

1.1              -0.0199440677833656 0.00682376707322973 0.96308007406272 -0.0214972751266029 0.0168602546999019 0.0113830197191654 0.0136584415208906 -0.00274668216106866 
                0.963080528950551 -0.0214969495859492 -0.0199466724038497 0.00682864070500407 0.0136613440370306 -0.00274660531574362 0.0168663770688149 0.0113869354702537 
                0.016848422616051 0.0113894277282236 0.0136506433499264 -0.00274046358281455 -0.0195413509394324 0.00525358168715773 0.968050489840644 -0.0184240988757169 
                0.0136476115824467 -0.00274030321381002 0.0168557928923256 0.0113937009778367 0.968050034959822 -0.0184249902258729 -0.0195466987671775 0.00525414759733955 
! Gamma  !      0                0                0                0                0                0                0                0                
! Port Impedance  50               0                50               0                50               0                50               0                

1.2              -0.0198223157578235 0.0074190931448635 0.962911366832943 -0.0234229829619137 0.0169352331646451 0.0124059931713927 0.0136034329320578 -0.00298362700932589 
                0.962911962694486 -0.0234226793926521 -0.0198250120204713 0.00742437810601455 0.0136064233338143 -0.00298360006554789 0.0169413140589662 0.0124101930207931 
                0.0169234696212657 0.0124124203017602 0.0135962415497977 -0.00297777730056392 -0.0194688495328297 0.00572076633134344 0.967932128283456 -0.0200834526890556 
                0.0135932839808905 -0.00297766959935331 0.0169310028207113 0.0124169925038171 0.967931680293399 -0.0200844660013928 -0.0194742366306517 0.00572137745768986 
! Gamma  !      0                0                0                0                0                0                0                0                
! Port Impedance  50               0                50               0                50               0                50               0                

1.3              -0.0196920845613047 0.00800846590467659 0.96273029951025 -0.0253418391678524 0.0170156016029445 0.0134262551949174 0.0135449231594474 -0.00321770220365949 
                0.96273104302946 -0.0253415692914135 -0.0196948860555707 0.00801415642223242 0.0135480003783295 -0.00321773568809973 0.0170216230070551 0.0134307288728541 
                0.017003806818523 0.0134326161232898 0.0135382208844108 -0.00321236878414743 -0.0193907129026876 0.00618536274077597 0.967804508215794 -0.0217389582048479 
                0.0135353332473578 -0.00321232602193677 0.0170115049313164 0.0134374693331429 0.967804060914059 -0.0217401014746859 -0.0193961437901891 0.00618601783658557 
! Gamma  !      0                0                0                0                0                0                0                0                
! Port Impedance  50               0                50               0                50               0                50               0                

1.4              -0.0195538269385896 0.00859160621689237 0.962537373117679 -0.0272535039315043 0.0171011360867195 0.0144437165107887 0.0134831585438848 -0.0034488304300842 
                0.962538269826986 -0.0272532798008977 -0.0195567482230064 0.00859769691402469 0.0134863201730318 -0.00344893434647972 0.0171070781340719 0.0144484555793946 
                0.0170891966297573 0.0144499382004395 0.0134768048307459 -0.00344414248114377 -0.0193070963031339 0.00664720627539594 0.967667867032079 -0.0233903785651814 
                0.0134739811856743 -0.00344417620427562 0.0170970596010536 0.0144550547822866 0.967667412923598 -0.0233916594605996 -0.0193125757250385 0.00664790413405614 
! Gamma  !      0                0                0                0                0                0                0                0                
! Port Impedance  50               0                50               0                50               0                50               0                

1.5              -0.0194080059691576 0.00916827608544312 0.962333101861511 -0.0291576819431536 0.0171916137579324 0.0154583104755426 0.0134183817478245 -0.00367695973058998 
                0.96233415613252 -0.0291575158259528 -0.0194110625093726 0.00917476211207041 0.01342162417254 -0.00367714339887244 0.0171974550740965 0.0154633085988512 
                0.0171794049906255 0.0154643340701095 0.0134122168696278 -0.00367302510165368 -0.0192181628999375 0.00710614324506054 0.967522453293023 -0.0250374946597871 
                0.013409449766109 -0.0036731459163879 0.0171874308484883 0.0154696969286747 0.967521983628489 -0.0250389203466028 -0.0192236958257812 0.00710688272745497 
! Gamma  !      0                0                0                0                0                0                0                0                
! Port Impedance  50               0                50               0                50               0                50               0                

1.6              -0.0192550908807437 0.00973827834938164 0.962118008673525 -0.0310541222952413 0.0172868152760924 0.0164699919168102 0.0133508290276974 -0.00390206175806919 
                0.962119223720319 -0.0310540265593232 -0.0192582989707202 0.00974515549979187 0.0133541475722688 -0.00390233368291476 0.0172925333517235 0.0164752450615513 
                0.0172742039939378 0.0164757741324317 0.0133446780854891 -0.00389896463984174 -0.0191240828879256 0.00756203129611599 0.967368525218379 -0.0266801056666131 
                0.0133419587498897 -0.00389918203258999 0.0172823890012319 0.0164813669127111 0.96736803005509 -0.026681682640457 -0.0191296745086884 0.00756281135775616 
! Gamma  !      0                0                0                0                0                0                0                0                
! Port Impedance  50               0                50               0                50               0                50               0                

1.7              -0.0190955530611915 0.0103014559251703 0.961892620929648 -0.032942617902405 0.0173865269740046 0.0174787357170613 0.0132807279182806 -0.0041241297724651 
                0.961893998823795 -0.0329426049057474 -0.0190989297304745 0.0103087207408177 0.013284117002853 -0.00412449754167643 0.0173920985535592 0.0174842422834574 
                0.0173733741390114 0.0174842497322443 0.0132744050215008 -0.00412192914288267 -0.0190250325948984 0.00801473971793598 0.9672063491644  -0.0283180294505261 
                0.0132717235617159 -0.0041222513377277 0.0173817129625178 0.017490056985964 0.967205817448262 -0.0283197633788292 -0.0190306883164144 0.00801555943545473 
! Gamma  !      0                0                0                0                0                0                0                0                
! Port Impedance  50               0                50               0                50               0                50               0                

1.8              -0.0189298623169509 0.0108576906431056 0.961657466396165 -0.0348230044860879 0.017490542704087 0.0184845352065892 0.013208295337378 -0.00434317646191663 
                0.961659008092519 -0.034823086471957 -0.018933425226694 0.0108653404990439 0.013211748639341 -0.00434364667403647 0.0174959441772792 0.0184902960909169 
                0.0174767061783641 0.0184897710684218 0.0132016078102213 -0.0043419052812399 -0.0189211935792653 0.00846414967004705 0.967036198100766 -0.0299511028223467 
                0.0131989534305674 -0.00434233913512161 0.0174851920685377 0.0184957783871851 0.967035617767392 -0.0299529983987901 -0.0189269190128787 0.00846500826671814 
! Gamma  !      0                0                0                0                0                0                0                0                
! Port Impedance  50               0                50               0                50               0                50               0                

1.9              -0.0187584834172482 0.0114069017290383 0.961413069446974 -0.0366951591724888 0.0175986653701123 0.019487400424394 0.0131337361038587 -0.00455923166686281 
                0.961414774819105 -0.0366953481709176 -0.0187622507479169 0.0114149349032196 0.0131372467186505 -0.00455980988629073 0.0176038731543485 0.01949341901751 
                0.0175840025672356 0.0194923650057768 0.0131264885892604 -0.00455889677331456 -0.0188127517299126 0.00891015433140652 0.966858350100242 -0.0315791816618578 
                0.0131238498089603 -0.00455944770799777 0.0175926275428795 0.0194985591219599 0.96685770819351 -0.0315812424755499 -0.018818552680246 0.00891105120135904 
! Gamma  !      0                0                0                0                0                0                0                0                
! Port Impedance  50               0                50               0                50               0                50               0                

2                -0.0185818729528695 0.0119490439853841 0.961159947584974 -0.0385589987554486 0.0177107081483775 0.0204873563019248 0.0130572418495029 -0.00477234007619395 
                0.961161815469007 -0.0385593064919029 -0.018585863286558 0.0119574597103324 0.0130608024465973 -0.00477303081350164 0.0177156990522083 0.0204936384295888 
                0.0176950785343273 0.0204920728561482 0.0130492402024753 -0.00477292271472818 -0.018699896374752 0.00935265897409732 0.966673086854508 -0.0332021409100554 
                0.0130466050716223 -0.00477359468355498 0.0177038335669257 0.0204984417135221 0.96667236965992 -0.0332043693313304 -0.018705778824982 0.00935359370496158 
! Gamma  !      0                0                0                0                0                0                0                0                
! Port Impedance  50               0                50               0                50               0                50               0                

2.1              -0.0184004765300223 0.0124841057259577 0.960898608292806 -0.0404144776778415 0.0178264954114009 0.0214844408188447 0.0129789902955293 -0.0049825589549021 
                0.960900636538566 -0.0404149154896157 -0.0184047087300839 0.0124929042230227 0.0129825932662295 -0.00498336566948238 0.0178312469709244 0.0214909946310211 
                0.0178097628006588 0.0214889481860689 0.0129700451788652 -0.00498401585843178 -0.0185828194052249 0.00979158096447819 0.966480692227488 -0.0348198744369412 
                0.0129674014868852 -0.00498481134506212 0.01781863799419 0.0214954809827312 0.966479885418067 -0.0348222715212954 -0.0185887895000132 0.00979255335815576 
! Gamma  !      0                0                0                0                0                0                0                0                
! Port Impedance  50               0                50               0                50               0                50               0                

2.2              -0.0182147263098765 0.0130121065185638 0.96062954622855 -0.0422615857848841 0.0179458633734268 0.0224787031738072 0.0128991448580656 -0.00518995595209792 
                0.960631731756584 -0.0422621645456338 -0.0182192194005149 0.0130212890151998 0.0129027824524192 -0.00519088107397087 0.017950354155459 0.0224855389908577 
                0.0179278979806456 0.0224830546983363 0.012889074975388 -0.00519222088675741 -0.0184617144227772 0.0102268496952798 0.966281450857405 -0.0364322947923208 
                0.0128864104475621 -0.0051931409324153 0.0179368827432222 0.0224897419050465 0.966280539649409 -0.0364348602036255 -0.0184677784491711 0.0102278597867302 
! Gamma  !      0                0                0                0                0                0                0                0                
! Port Impedance  50               0                50               0                50               0                50               0                

2.3              -0.0180250388974184 0.0135330947874797 0.960353240774425 -0.0441003459018027 0.0180686604819105 0.0234702020062696 0.0128178545424733 -0.00539460702759004 
                0.960355579637916 -0.0441010759545633 -0.0180298119454954 0.0135426635183658 0.0128215189935225 -0.00539565199516756 0.0180728703497303 0.0234773321302962 
                0.0180493407031017 0.0234744642247984 0.0128064894644497 -0.00539759271071238 -0.0183367759129212 0.0106584064528716 0.966075646816829 -0.0380393328478865 
                0.0128037919433277 -0.00539863696615051 0.0180584239079842 0.0234812975819279 0.966074616132648 -0.0380420648016724 -0.0183429402794513 0.010659454526623 
! Gamma  !      0                0                0                0                0                0                0                0                
! Port Impedance  50               0                50               0                50               0                50               0                

2.4              -0.017831813575308 0.014047145324388 0.960070153939085 -0.0459308112859743 0.0181947475823783 0.0244590036983478 0.0127352540849304 -0.00559659452543629 
                0.960072641389363 -0.0459317023845311 -0.0178368855764768 0.0140571035176833 0.012738937719158 -0.00559775983595212 0.0181986579214792 0.0244664421979424 
                0.0181739614920167 0.024463254858095 0.0127224366436618 -0.00560019482603336 -0.0182081984520792 0.0110862042242923 0.965863562339118 -0.0396409373397546 
                0.0127196942528949 -0.00560136162421365 0.0181831316260466 0.0244702273545419 0.965862396974725 -0.0396438325669646 -0.0182144696663133 0.0110872908285806 
! Gamma  !      0                0                0                0                0                0                0                0                
! Port Impedance  50               0                50               0                50               0                50               0                

2.5              -0.0176354308727172 0.0145543567531755 0.959780728607548 -0.047753063000272 0.0183239978855352 0.0254451807791557 0.012651464299536 -0.00579600541333752 
                0.95978335916211 -0.0477541242589966 -0.0176408206436588 0.0145647086031099 0.0126551596329721 -0.00579729068297849 0.0183275917884938 0.0254529432553787 
                0.0183016444470949 0.0254495092411489 0.0126370525430604 -0.00580009774952162 -0.0180761759511245 0.0115102074487128 0.965645476618302 -0.0412370743208319 
                0.0126342538320268 -0.00580138419489273 0.0183108897452922 0.0254566150785327 0.965644161412438 -0.0412401280520065 -0.0180825605961008 0.0115113334071824 
! Gamma  !      0                0                0                0                0                0                0                0                
! Port Impedance  50               0                50               0                50               0                50               0                

2.6              -0.0174362514537914 0.0150548489889195 0.959485387127159 -0.0495672072509294 0.0184562967661524 0.0264288104475608 0.012566592590848 -0.00599292969907009 
                0.959488154639267 -0.0495684471027765 -0.0174419775319524 0.0150655996163897 0.0125702924109081 -0.00599433372994512 0.0184595591769944 0.0264369137884955 
                0.0184322867621782 0.0264333130256968 0.0125504613040341 -0.00599737755351581 -0.0179409009398963 0.0119303917187752 0.965421664688161 -0.0428277265330657 
                0.0125475953724647 -0.00599877962407058 0.018441595328019 0.0264405475708669 0.965420184690934 -0.042830932502727 -0.0179474056495703 0.0119315581396222 
! Gamma  !      0                0                0                0                0                0                0                0                
! Port Impedance  50               0                50               0                50               0                50               0                

2.7              -0.0172346153068374 0.0155487607269452 0.959184530214007 -0.0513733727284337 0.0185915414223138 0.0274099732238434 0.0124807335946298 -0.00618745902798826 
                0.959187427942831 -0.0513747988907706 -0.017240695858832 0.0155599161297034 0.0124844310279988 -0.00618897987941031 0.0185944592418134 0.0274184353542822 
                0.0185657981177689 0.0274147535041926 0.0124627754040842 -0.00619211451116453 -0.0178025638951773 0.012346743436952 0.965192396384944 -0.0444128927096408 
                0.0124598320065195 -0.00619362716952221 0.0185751580289759 0.0274221132329475 0.96519073702323 -0.0444162431801773 -0.0178091953292832 0.0123479517195149 
! Gamma  !      0                0                0                0                0                0                0                0                
! Port Impedance  50               0                50               0                50               0                50               0                

2.8              -0.017030841211214 0.0160362469927693 0.958878536159341 -0.0531717079855507 0.0187296404225407 0.0283887517357529 0.0123939699126207 -0.00637968546012391 
                0.958881556839935 -0.0531733274335124 -0.0170372939507002 0.0160478139868042 0.0123976584800181 -0.0063813205220945 0.0187322025768593 0.0283975913676782 
                0.018702099980211 0.0283939184142659 0.0123740960023415 -0.00638439186051398 -0.0176613526147804 0.0127592594324  0.964957935396955 -0.045992586817194 
                0.012371065632788 -0.00638600917071841 0.0187114993804292 0.0284014008488045 0.964956082634432 -0.0459960726214126 -0.0176681174333329 0.0127605112711517 
! Gamma  !      0                0                0                0                0                0                0                0                
! Port Impedance  50               0                50               0                50               0                50               0                

2.9              -0.0168252264582108 0.0165174767785711 0.958567760314504 -0.0549623788819046 0.0188705131660094 0.0293652296401443 0.0123063729115416 -0.00656970042107277 
                0.958570896226815 -0.0549641978287097 -0.0168320685738149 0.0165294629325232 0.0123100465702566 -0.00657144648803953 0.018872710641545 0.029374466028936 
                0.0188411248367304 0.0293708949103784 0.0122845133821095 -0.00657429469132431 -0.0175174516394101 0.0131679465436347 0.964718538403165 -0.0475668372481541 
                0.0122813873397236 -0.00657600993830165 0.0188505520135962 0.0293784985527537 0.964716478892905 -0.0475704478492318 -0.0175243564771499 0.0131692439297151 
! Gamma  !      0                0                0                0                0                0                0                0                
! Port Impedance  50               0                50               0                50               0                50               0                

3                -0.0166180467997037 0.016992630787322 0.958252534829393 -0.0567455661195347 0.0190140892788771 0.0303394906782804 0.0122180035600164 -0.00675759381737576 
                0.958255777865735 -0.0567475900033415 -0.0166252948932101 0.0170050443513548 0.0122216567353664 -0.00675944716082405 0.0190159151267509 0.0303491433884855 
                0.018982815391519 0.0303457686943056 0.0121941074683951 -0.00676190895515472 -0.0173710417234254 0.0135728211725308 0.964474454301838 -0.049135685972896 
                0.0121908779053514 -0.00676371476427962 0.0189922588420908 0.0303534929577745 0.964472175529625 -0.0491394095404827 -0.0173780931644334 0.0135741663927709 
! Gamma  !      0                0                0                0                0                0                0                0                
! Port Impedance  50               0                50               0                50               0                50               0                

3.1              -0.0164095565985994 0.0174618993006495 0.957933168619556 -0.0585214628895442 0.0191603079670945 0.0313116178598234 0.012128913281633 -0.00694345330497298 
                0.957936510350008 -0.0585236963662256 -0.0164172266335119 0.0174747491314719 0.0121325408885224 -0.00694540974360852 0.0191617572808537 0.0313217065436867 
                0.0191271237442479 0.0313186232935325 0.0121029484007051 -0.00694732059635372 -0.0172222993550566 0.0139739088147532 0.964225923529023 -0.0506991876612135 
                0.0120996083536484 -0.00694920905090157 0.0191365722286605 0.0313264684334111 0.964223413945772 -0.0507030111620423 -0.0172295039078367 0.0139753044483362 
! Gamma  !      0                0                0                0                0                0                0                0                
! Port Impedance  50               0                50               0                50               0                50               0                

3.2              -0.016199989154831 0.0179254801826182 0.957609947535968 -0.0602902726453592 0.0193091173434678 0.0322816927688915 0.0120391448058245 -0.00712736369775754 
                0.957613379271276 -0.0602927195866979 -0.0162080964151916 0.0179387756660339 0.0120427422615981 -0.00712941866436861 0.0193101872136361 0.0322922369599026 
                0.0192740105688856 0.0322895394754066 0.012011097143187 -0.00713061479955845 -0.0170713963262248 0.0143712435717154 0.963973177466121 -0.0522574087820606 
                0.0120076405498688 -0.00713257755424923 0.0192834531534087 0.0322975065207154 0.96397042660816 -0.0522613180834872 -0.0170787603993379 0.014372692484562 
! Gamma  !      0                0                0                0                0                0                0                0                
! Port Impedance  50               0                50               0                50               0                50               0                

3.3              -0.0159895571817704 0.0183835770276019 0.957283134712017 -0.06205220701431 0.0194604737439491 0.0332497949838608 0.0119487330020502 -0.00730940650241038 
                0.957286647563679 -0.0620548705110174 -0.0159981162407885 0.018397327999893 0.0119522962318457 -0.00731155510678239 0.019461163193118 0.0332608139069251 
                0.0194234443069616 0.033258594783919 0.0119186061170753 -0.0073118753475363 -0.0169184993511848 0.0147648676488803 0.963716437934648 -0.0538104266901227 
                0.0119150278197511 -0.00731390373670182 0.0194328703974627 0.0332666854709198 0.963713436530528 -0.0538144066747055 -0.0169260292298823 0.0147663729859771 
! Gamma  !      0                0                0                0                0                0                0                0                
! Port Impedance  50               0                50               0                50               0                50               0                

3.4              -0.0157784534084197 0.0188363974567549 0.956952971062651 -0.0638074838553047 0.0196143410458304 0.0342160016017846 0.0118577056858545 -0.00748965956573042 
                0.956956555999954 -0.063810366224329 -0.0157874781065573 0.0188506141260892 0.0118612311216528 -0.0074918966531235 0.0196146509477279 0.0342275140010128 
                0.0195754003865822 0.0342258631858789 0.0118255198419801 -0.00749118408193983 -0.0167637697337444 0.0151548308450407 0.963455916775748 -0.0553583287069586 
                0.0118218155793191 -0.0074932692212899 0.0195847997536109 0.0342340798941883 0.963452656839042 -0.0553623633963651 -0.0167714715574885 0.0151563960206937 
! Gamma  !      0                0                0                0                0                0                0                0                
! Port Impedance  50               0                50               0                50               0                50               0                

3.5              -0.0155668512846532 0.0192841515649005 0.956619675911936 -0.0655563254672836 0.0197706899981032 0.0351803868578523 0.0117660843883089 -0.00766819682059885 
                0.956623323815704 -0.0655594282628716 -0.0155763547165791 0.0192988444337937 0.0117695689626702 -0.00767051702558222 0.0197706229839362 0.0351924108423628 
                0.0197298604756133 0.0351914148133061 0.0117318755752756 -0.00766862045903727 -0.0166073630811105 0.0155411900367257 0.963191815511263 -0.0569012112041545 
                0.0117280419643766 -0.00767075334020673 0.0197392232721221 0.0351997605052445 0.963188290418515 -0.0569052838905009 -0.0166152428223345 0.0155428187230386 
! Gamma  !      0                0                0                0                0                0                0                0                
! Port Impedance  50               0                50               0                50               0                50               0                

3.6              -0.0153549057682335 0.0197270505168781 0.956283447726332 -0.0672989569502787 0.019929497571983 0.0361430218300512 0.0116738850827969 -0.00784508811762685 
                0.956287149439369 -0.0673022809782435 -0.0153649002779787 0.0197422303066094 0.0116773262183111 -0.00784748591312864 0.0199290579270575 0.0361555747378292 
                0.019886811775141 0.0361553157894852 0.0116377039403854 -0.00784426119182768 -0.01644942906327 0.0159240086618091 0.962924325082804 -0.0584391786950702 
                0.0116337384504979 -0.00784643276922559 0.0198961285478525 0.0361637939530306 0.962920529636412 -0.0584432720778061 -0.0164574925074561 0.0159257047755226 
! Gamma  !      0                0                0                0                0                0                0                0                
! Port Impedance  50               0                50               0                50               0                50               0                

3.7              -0.0151427541741729 0.0201653052902828 0.955944464932835 -0.0690356047181768 0.0200907463379836 0.0371039742194388 0.0115811188650665 -0.0080203991300124 
                0.955948211306939 -0.0690391500529446 -0.0151532513578004 0.0201809828679889 0.0115845144604362 -0.00802286887162257 0.0200899398913087 0.0371170724988474 
                0.0200462463571522 0.0371176281267731 0.0115430295369174 -0.0080181799699619 -0.0162901112158815 0.0163033562058637 0.962653625664609 -0.059972342941049 
                0.0115389304563633 -0.00802038123963023 0.0200555080525753 0.0371262427223491 0.962649556140464 -0.0599764392676612 -0.0162983639430205 0.0163051238936571 
! Gamma  !      0                0                0                0                0                0                0                0                
! Port Impedance  50               0                50               0                50               0                50               0                

3.8              -0.0149305170688912 0.02059912555977 0.955602886802605 -0.0707664951605272 0.0202544238739266 0.0380633081967594 0.0114877925844749 -0.00819419132033447 
                0.955606668742205 -0.07077026116443 -0.0149415277839312 0.020615311868849 0.0114911409979651 -0.00819672728598594 0.0202532578832478 0.0380769673050425 
                0.0202081605488207 0.0380784096851969 0.0114478715270865 -0.00819044724896401 -0.0161295467844962 0.0166793076945604 0.962379886545972 -0.0615008220775151 
                0.0114436379247254 -0.00819266931940144 0.0202173585147234 0.0380871650964409 0.962375540725917 -0.0615049032862185 -0.0161379941521069 0.0166811513171128 
! Gamma  !      0                0                0                0                0                0                0                0                
! Port Impedance  50               0                50               0                50               0                50               0                

3.9              -0.0147182991934913 0.0210287187168361 0.955258854382744 -0.0724918534488745 0.0204205222072007 0.0390210843065249 0.0113939094254692 -0.0083665219588856 
                0.955262662885159 -0.0724958387933451 -0.0147298335744289 0.0210454247111496 0.0113972094564446 -0.00836911838407858 0.0204190052415174 0.0390353186244806 
                0.0203725543644371 0.0390377141818155 0.011352244194093 -0.00836113010050887 -0.0159678666080492 0.0170519431951179 0.962103266078349 -0.0630247397644474 
                0.0113478758766501 -0.00836336425555073 0.0203816803476107 0.0390466151703062 0.962098643267786 -0.0630287876273083 -0.0159765137357137 0.017053867309972 
! Gamma  !      0                0                0                0                0                0                0                0                